TMPDIR /state/partition1/378131 unavailable
TMPDIR /state/partition1/378131 unavailable
TMPDIR /state/partition1/378131 unavailable
TMPDIR /state/partition1/378131 unavailable
TMPDIR /state/partition1/378131 unavailable
TMPDIR /state/partition1/378131 unavailable
TMPDIR /state/partition1/378131 unavailable
TMPDIR /state/partition1/378131 unavailable

     Program PWSCF v.6.4.1 starts on 24Oct2019 at 16:37:48 

     This program is part of the open-source Quantum ESPRESSO suite
     for quantum simulation of materials; please cite
         "P. Giannozzi et al., J. Phys.:Condens. Matter 21 395502 (2009);
         "P. Giannozzi et al., J. Phys.:Condens. Matter 29 465901 (2017);
          URL http://www.quantum-espresso.org", 
     in publications or presentations arising from this work. More details at
     http://www.quantum-espresso.org/quote

     Parallel version (MPI), running on     8 processors

     MPI processes distributed on     1 nodes
     R & G space division:  proc/nbgrp/npool/nimage =       8
     Reading input from /scratch/hpc-testing/qe-tests/my_bench/ZrO/ZrO.in
     Message from routine read_cards :
     DEPRECATED: no units specified in ATOMIC_POSITIONS card
     Message from routine read_cards :
     ATOMIC_POSITIONS: units set to alat

     Current dimensions of program PWSCF are:
     Max number of different atomic species (ntypx) = 10
     Max number of k-points (npk) =  40000
     Max angular momentum in pseudopotentials (lmaxx) =  3
               file O.pbe-n-kjpaw_psl.1.0.0.UPF: wavefunction(s)  2S 2P renormalized
               file Zr.pbe-spn-kjpaw_psl.1.0.0.UPF: wavefunction(s)  4S 4P renormalized

     Subspace diagonalization in iterative solution of the eigenvalue problem:
     a serial algorithm will be used


     Parallelization info
     --------------------
     sticks:   dense  smooth     PW     G-vecs:    dense   smooth      PW
     Min        1415     498    130               114751    23757    3192
     Max        1417     499    131               114752    23758    3195
     Sum       11329    3985   1041               918009   190063   25549



     bravais-lattice index     =            6
     lattice parameter (alat)  =      18.8620  a.u.
     unit-cell volume          =    6794.5117 (a.u.)^3
     number of atoms/cell      =           95
     number of atomic types    =            2
     number of electrons       =       760.00
     number of Kohn-Sham states=          456
     kinetic-energy cutoff     =      35.0000  Ry
     charge density cutoff     =     400.0000  Ry
     convergence threshold     =      1.0E-08
     mixing beta               =       0.4000
     number of iterations used =            8  plain     mixing
     Exchange-correlation      = SLA PW PBX PBC ( 1  4  3  4 0 0)

     celldm(1)=  18.862000  celldm(2)=   0.000000  celldm(3)=   1.012500
     celldm(4)=   0.000000  celldm(5)=   0.000000  celldm(6)=   0.000000

     crystal axes: (cart. coord. in units of alat)
               a(1) = (   1.000000   0.000000   0.000000 )  
               a(2) = (   0.000000   1.000000   0.000000 )  
               a(3) = (   0.000000   0.000000   1.012500 )  

     reciprocal axes: (cart. coord. in units 2 pi/alat)
               b(1) = (  1.000000  0.000000  0.000000 )  
               b(2) = (  0.000000  1.000000  0.000000 )  
               b(3) = (  0.000000  0.000000  0.987654 )  


     PseudoPot. # 1 for O  read from file:
     /scratch/hpc-testing/qe-tests/pseudos/O.pbe-n-kjpaw_psl.1.0.0.UPF
     MD5 check sum: e99d9cef9b487d1ca56f5b95ecd0fd7a
     Pseudo is Projector augmented-wave + core cor, Zval =  6.0
     Generated using "atomic" code by A. Dal Corso v.6.3
     Shape of augmentation charge: PSQ
     Using radial grid of 1095 points,  4 beta functions with: 
                l(1) =   0
                l(2) =   0
                l(3) =   1
                l(4) =   1
     Q(r) pseudized with 0 coefficients 


     PseudoPot. # 2 for Zr read from file:
     /scratch/hpc-testing/qe-tests/pseudos/Zr.pbe-spn-kjpaw_psl.1.0.0.UPF
     MD5 check sum: 02112c41713a0468aff2bb39ef194e36
     Pseudo is Projector augmented-wave + core cor, Zval = 12.0
     Generated using "atomic" code by A. Dal Corso v.6.2.2
     Shape of augmentation charge: PSQ
     Using radial grid of 1225 points,  6 beta functions with: 
                l(1) =   0
                l(2) =   0
                l(3) =   1
                l(4) =   1
                l(5) =   2
                l(6) =   2
     Q(r) pseudized with 0 coefficients 


     atomic species   valence    mass     pseudopotential
        O              6.00    15.99900     O ( 1.00)
        Zr            12.00    91.22400     Zr( 1.00)

      2 Sym. Ops. (no inversion) found


                                    s                        frac. trans.

      isym =  1     identity                                     

 cryst.   s( 1) = (     1          0          0      )
                  (     0          1          0      )
                  (     0          0          1      )

 cart.    s( 1) = (  1.0000000  0.0000000  0.0000000 )
                  (  0.0000000  1.0000000  0.0000000 )
                  (  0.0000000  0.0000000  1.0000000 )


      isym =  2     inv. 180 deg rotation - cart. axis [1,-1,0]  

 cryst.   s( 2) = (     0          1          0      )
                  (     1          0          0      )
                  (     0          0          1      )

 cart.    s( 2) = (  0.0000000  1.0000000  0.0000000 )
                  (  1.0000000  0.0000000  0.0000000 )
                  (  0.0000000  0.0000000  1.0000000 )


     point group C_s (m)    
     there are  2 classes
     the character table:

       E     s    
A'     1.00  1.00
A''    1.00 -1.00

     the symmetry operations in each class and the name of the first element:

     E        1
          identity                                               
     s        2
          inv. 180 deg rotation - cart. axis [1,-1,0]            

   Cartesian axes

     site n.     atom                  positions (alat units)
         1           O   tau(   1) = (   0.1257732   0.1257732   0.1041562  )
         2           O   tau(   2) = (   0.1267504   0.1267504   0.3591291  )
         3           O   tau(   3) = (   0.1205910   0.3762458   0.1380238  )
         4           O   tau(   4) = (   0.3762458   0.1205910   0.1380238  )
         5           O   tau(   5) = (   0.1502629   0.3826493   0.3908184  )
         6           O   tau(   6) = (   0.3826493   0.1502629   0.3908184  )
         7           O   tau(   7) = (   0.3749961   0.3749961   0.1241850  )
         8           Zr  tau(   8) = (   0.0006127   0.0006127  -0.0057512  )
         9           Zr  tau(   9) = (  -0.0006288   0.2475701   0.2463409  )
        10           Zr  tau(  10) = (   0.2475701  -0.0006288   0.2463409  )
        11           Zr  tau(  11) = (   0.2504745   0.2504745  -0.0040623  )
        12           O   tau(  12) = (   0.6255785   0.1244219   0.1002771  )
        13           O   tau(  13) = (   0.6307117   0.1192861   0.3535485  )
        14           O   tau(  14) = (   0.6294002   0.3737547   0.1380249  )
        15           O   tau(  15) = (   0.8758504   0.1248552   0.1408850  )
        16           O   tau(  16) = (   0.5997330   0.3673460   0.3908197  )
        17           O   tau(  17) = (   0.8770458   0.1263671   0.3943858  )
        18           O   tau(  18) = (   0.8749950   0.3750058   0.1002895  )
        19           O   tau(  19) = (   0.8749954   0.3749973   0.3536604  )
        20           Zr  tau(  20) = (   0.4969922  -0.0006160  -0.0082364  )
        21           Zr  tau(  21) = (   0.5125691   0.2374285   0.2367752  )
        22           Zr  tau(  22) = (   0.7526918  -0.0026884   0.2461911  )
        23           Zr  tau(  23) = (   0.7506154   0.2530086  -0.0082369  )
        24           O   tau(  24) = (   0.1244219   0.6255785   0.1002771  )
        25           O   tau(  25) = (   0.1192861   0.6307117   0.3535485  )
        26           O   tau(  26) = (   0.1248552   0.8758504   0.1408850  )
        27           O   tau(  27) = (   0.3737547   0.6294002   0.1380249  )
        28           O   tau(  28) = (   0.1263671   0.8770458   0.3943858  )
        29           O   tau(  29) = (   0.3673460   0.5997330   0.3908197  )
        30           O   tau(  30) = (   0.3750058   0.8749950   0.1002895  )
        31           O   tau(  31) = (   0.3749973   0.8749954   0.3536604  )
        32           Zr  tau(  32) = (  -0.0006160   0.4969922  -0.0082364  )
        33           Zr  tau(  33) = (  -0.0026884   0.7526918   0.2461911  )
        34           Zr  tau(  34) = (   0.2374285   0.5125691   0.2367752  )
        35           Zr  tau(  35) = (   0.2530086   0.7506154  -0.0082369  )
        36           O   tau(  36) = (   0.1178844   0.1178844   0.6143541  )
        37           O   tau(  37) = (   0.1260691   0.1260691   0.8640186  )
        38           O   tau(  38) = (   0.1240994   0.3689794   0.6475657  )
        39           O   tau(  39) = (   0.3689794   0.1240994   0.6475657  )
        40           O   tau(  40) = (   0.1264824   0.3751252   0.8997287  )
        41           O   tau(  41) = (   0.3751252   0.1264824   0.8997287  )
        42           O   tau(  42) = (   0.3750010   0.3750010   0.5931488  )
        43           O   tau(  43) = (   0.3749971   0.3749971   0.8631415  )
        44           Zr  tau(  44) = (  -0.0025398  -0.0025398   0.4994078  )
        45           Zr  tau(  45) = (  -0.0032014   0.2469758   0.7551241  )
        46           Zr  tau(  46) = (   0.2469758  -0.0032014   0.7551241  )
        47           Zr  tau(  47) = (   0.2407046   0.2407046   0.5114920  )
        48           O   tau(  48) = (   0.1327850   0.6172167   0.6049911  )
        49           O   tau(  49) = (   0.1257071   0.6243004   0.8587059  )
        50           O   tau(  50) = (   0.1278052   0.8674011   0.6459728  )
        51           O   tau(  51) = (   0.3810216   0.6259068   0.6475640  )
        52           O   tau(  52) = (   0.1248534   0.8754952   0.9003133  )
        53           O   tau(  53) = (   0.3748774   0.6235146   0.8997285  )
        54           O   tau(  54) = (   0.3749961   0.8750031   0.6049727  )
        55           O   tau(  55) = (   0.3749986   0.8749976   0.8607499  )
        56           Zr  tau(  56) = (   0.0030358   0.4987555   0.4998773  )
        57           Zr  tau(  57) = (   0.0001427   0.7498567   0.7550687  )
        58           Zr  tau(  58) = (   0.2500448   0.4999585   0.7517250  )
        59           Zr  tau(  59) = (   0.2512454   0.7469652   0.4998757  )
        60           O   tau(  60) = (   0.6172167   0.1327850   0.6049911  )
        61           O   tau(  61) = (   0.6243004   0.1257071   0.8587059  )
        62           O   tau(  62) = (   0.6259068   0.3810216   0.6475640  )
        63           O   tau(  63) = (   0.8674011   0.1278052   0.6459728  )
        64           O   tau(  64) = (   0.6235146   0.3748774   0.8997285  )
        65           O   tau(  65) = (   0.8754952   0.1248534   0.9003133  )
        66           O   tau(  66) = (   0.8750031   0.3749961   0.6049727  )
        67           O   tau(  67) = (   0.8749976   0.3749986   0.8607499  )
        68           Zr  tau(  68) = (   0.4987555   0.0030358   0.4998773  )
        69           Zr  tau(  69) = (   0.4999585   0.2500448   0.7517250  )
        70           Zr  tau(  70) = (   0.7498567   0.0001427   0.7550687  )
        71           Zr  tau(  71) = (   0.7469652   0.2512454   0.4998757  )
        72           O   tau(  72) = (   0.6242273   0.6242273   0.1041538  )
        73           O   tau(  73) = (   0.6232489   0.6232489   0.3591288  )
        74           O   tau(  74) = (   0.6251570   0.8741446   0.1408863  )
        75           O   tau(  75) = (   0.8741446   0.6251570   0.1408863  )
        76           O   tau(  76) = (   0.6236301   0.8729543   0.3943857  )
        77           O   tau(  77) = (   0.8729543   0.6236301   0.3943857  )
        78           O   tau(  78) = (   0.8750037   0.8750037   0.1006701  )
        79           O   tau(  79) = (   0.8749979   0.8749979   0.3557004  )
        80           Zr  tau(  80) = (   0.4995236   0.4995236  -0.0040579  )
        81           Zr  tau(  81) = (   0.5024313   0.7506293   0.2463374  )
        82           Zr  tau(  82) = (   0.7506293   0.5024313   0.2463374  )
        83           Zr  tau(  83) = (   0.7493911   0.7493911  -0.0057492  )
        84           O   tau(  84) = (   0.6321175   0.6321175   0.6143550  )
        85           O   tau(  85) = (   0.6239373   0.6239373   0.8640200  )
        86           O   tau(  86) = (   0.6221891   0.8826005   0.6459730  )
        87           O   tau(  87) = (   0.8826005   0.6221891   0.6459730  )
        88           O   tau(  88) = (   0.6251488   0.8745079   0.9003136  )
        89           O   tau(  89) = (   0.8745079   0.6251488   0.9003136  )
        90           O   tau(  90) = (   0.8749976   0.8749976   0.6092928  )
        91           O   tau(  91) = (   0.8749990   0.8749990   0.8607327  )
        92           Zr  tau(  92) = (   0.5092967   0.5092967   0.5114908  )
        93           Zr  tau(  93) = (   0.5030266   0.7532010   0.7551263  )
        94           Zr  tau(  94) = (   0.7532010   0.5030266   0.7551263  )
        95           Zr  tau(  95) = (   0.7525386   0.7525386   0.4994040  )

   Crystallographic axes

     site n.     atom                  positions (cryst. coord.)
         1           O   tau(   1) = (  0.1257732  0.1257732  0.1028703  )
         2           O   tau(   2) = (  0.1267504  0.1267504  0.3546954  )
         3           O   tau(   3) = (  0.1205910  0.3762458  0.1363198  )
         4           O   tau(   4) = (  0.3762458  0.1205910  0.1363198  )
         5           O   tau(   5) = (  0.1502629  0.3826493  0.3859934  )
         6           O   tau(   6) = (  0.3826493  0.1502629  0.3859934  )
         7           O   tau(   7) = (  0.3749961  0.3749961  0.1226519  )
         8           Zr  tau(   8) = (  0.0006127  0.0006127 -0.0056802  )
         9           Zr  tau(   9) = ( -0.0006288  0.2475701  0.2432996  )
        10           Zr  tau(  10) = (  0.2475701 -0.0006288  0.2432996  )
        11           Zr  tau(  11) = (  0.2504745  0.2504745 -0.0040122  )
        12           O   tau(  12) = (  0.6255785  0.1244219  0.0990391  )
        13           O   tau(  13) = (  0.6307117  0.1192861  0.3491837  )
        14           O   tau(  14) = (  0.6294002  0.3737547  0.1363209  )
        15           O   tau(  15) = (  0.8758504  0.1248552  0.1391457  )
        16           O   tau(  16) = (  0.5997330  0.3673460  0.3859948  )
        17           O   tau(  17) = (  0.8770458  0.1263671  0.3895169  )
        18           O   tau(  18) = (  0.8749950  0.3750058  0.0990514  )
        19           O   tau(  19) = (  0.8749954  0.3749973  0.3492942  )
        20           Zr  tau(  20) = (  0.4969922 -0.0006160 -0.0081348  )
        21           Zr  tau(  21) = (  0.5125691  0.2374285  0.2338520  )
        22           Zr  tau(  22) = (  0.7526918 -0.0026884  0.2431517  )
        23           Zr  tau(  23) = (  0.7506154  0.2530086 -0.0081352  )
        24           O   tau(  24) = (  0.1244219  0.6255785  0.0990391  )
        25           O   tau(  25) = (  0.1192861  0.6307117  0.3491837  )
        26           O   tau(  26) = (  0.1248552  0.8758504  0.1391457  )
        27           O   tau(  27) = (  0.3737547  0.6294002  0.1363209  )
        28           O   tau(  28) = (  0.1263671  0.8770458  0.3895169  )
        29           O   tau(  29) = (  0.3673460  0.5997330  0.3859948  )
        30           O   tau(  30) = (  0.3750058  0.8749950  0.0990514  )
        31           O   tau(  31) = (  0.3749973  0.8749954  0.3492942  )
        32           Zr  tau(  32) = ( -0.0006160  0.4969922 -0.0081348  )
        33           Zr  tau(  33) = ( -0.0026884  0.7526918  0.2431517  )
        34           Zr  tau(  34) = (  0.2374285  0.5125691  0.2338520  )
        35           Zr  tau(  35) = (  0.2530086  0.7506154 -0.0081352  )
        36           O   tau(  36) = (  0.1178844  0.1178844  0.6067695  )
        37           O   tau(  37) = (  0.1260691  0.1260691  0.8533517  )
        38           O   tau(  38) = (  0.1240994  0.3689794  0.6395710  )
        39           O   tau(  39) = (  0.3689794  0.1240994  0.6395710  )
        40           O   tau(  40) = (  0.1264824  0.3751252  0.8886210  )
        41           O   tau(  41) = (  0.3751252  0.1264824  0.8886210  )
        42           O   tau(  42) = (  0.3750010  0.3750010  0.5858260  )
        43           O   tau(  43) = (  0.3749971  0.3749971  0.8524855  )
        44           Zr  tau(  44) = ( -0.0025398 -0.0025398  0.4932422  )
        45           Zr  tau(  45) = ( -0.0032014  0.2469758  0.7458015  )
        46           Zr  tau(  46) = (  0.2469758 -0.0032014  0.7458015  )
        47           Zr  tau(  47) = (  0.2407046  0.2407046  0.5051773  )
        48           O   tau(  48) = (  0.1327850  0.6172167  0.5975220  )
        49           O   tau(  49) = (  0.1257071  0.6243004  0.8481046  )
        50           O   tau(  50) = (  0.1278052  0.8674011  0.6379979  )
        51           O   tau(  51) = (  0.3810216  0.6259068  0.6395694  )
        52           O   tau(  52) = (  0.1248534  0.8754952  0.8891984  )
        53           O   tau(  53) = (  0.3748774  0.6235146  0.8886207  )
        54           O   tau(  54) = (  0.3749961  0.8750031  0.5975039  )
        55           O   tau(  55) = (  0.3749986  0.8749976  0.8501234  )
        56           Zr  tau(  56) = (  0.0030358  0.4987555  0.4937059  )
        57           Zr  tau(  57) = (  0.0001427  0.7498567  0.7457468  )
        58           Zr  tau(  58) = (  0.2500448  0.4999585  0.7424445  )
        59           Zr  tau(  59) = (  0.2512454  0.7469652  0.4937044  )
        60           O   tau(  60) = (  0.6172167  0.1327850  0.5975220  )
        61           O   tau(  61) = (  0.6243004  0.1257071  0.8481046  )
        62           O   tau(  62) = (  0.6259068  0.3810216  0.6395694  )
        63           O   tau(  63) = (  0.8674011  0.1278052  0.6379979  )
        64           O   tau(  64) = (  0.6235146  0.3748774  0.8886207  )
        65           O   tau(  65) = (  0.8754952  0.1248534  0.8891984  )
        66           O   tau(  66) = (  0.8750031  0.3749961  0.5975039  )
        67           O   tau(  67) = (  0.8749976  0.3749986  0.8501234  )
        68           Zr  tau(  68) = (  0.4987555  0.0030358  0.4937059  )
        69           Zr  tau(  69) = (  0.4999585  0.2500448  0.7424445  )
        70           Zr  tau(  70) = (  0.7498567  0.0001427  0.7457468  )
        71           Zr  tau(  71) = (  0.7469652  0.2512454  0.4937044  )
        72           O   tau(  72) = (  0.6242273  0.6242273  0.1028680  )
        73           O   tau(  73) = (  0.6232489  0.6232489  0.3546951  )
        74           O   tau(  74) = (  0.6251570  0.8741446  0.1391470  )
        75           O   tau(  75) = (  0.8741446  0.6251570  0.1391470  )
        76           O   tau(  76) = (  0.6236301  0.8729543  0.3895167  )
        77           O   tau(  77) = (  0.8729543  0.6236301  0.3895167  )
        78           O   tau(  78) = (  0.8750037  0.8750037  0.0994272  )
        79           O   tau(  79) = (  0.8749979  0.8749979  0.3513090  )
        80           Zr  tau(  80) = (  0.4995236  0.4995236 -0.0040078  )
        81           Zr  tau(  81) = (  0.5024313  0.7506293  0.2432962  )
        82           Zr  tau(  82) = (  0.7506293  0.5024313  0.2432962  )
        83           Zr  tau(  83) = (  0.7493911  0.7493911 -0.0056782  )
        84           O   tau(  84) = (  0.6321175  0.6321175  0.6067704  )
        85           O   tau(  85) = (  0.6239373  0.6239373  0.8533531  )
        86           O   tau(  86) = (  0.6221891  0.8826005  0.6379980  )
        87           O   tau(  87) = (  0.8826005  0.6221891  0.6379980  )
        88           O   tau(  88) = (  0.6251488  0.8745079  0.8891986  )
        89           O   tau(  89) = (  0.8745079  0.6251488  0.8891986  )
        90           O   tau(  90) = (  0.8749976  0.8749976  0.6017706  )
        91           O   tau(  91) = (  0.8749990  0.8749990  0.8501063  )
        92           Zr  tau(  92) = (  0.5092967  0.5092967  0.5051761  )
        93           Zr  tau(  93) = (  0.5030266  0.7532010  0.7458037  )
        94           Zr  tau(  94) = (  0.7532010  0.5030266  0.7458037  )
        95           Zr  tau(  95) = (  0.7525386  0.7525386  0.4932385  )

     number of k points=     3  Methfessel-Paxton smearing, width (Ry)=  0.0200
                       cart. coord. in units 2pi/alat
        k(    1) = (   0.2500000   0.2500000   0.2469136), wk =   0.5000000
        k(    2) = (  -0.2500000   0.2500000  -0.2469136), wk =   1.0000000
        k(    3) = (   0.2500000   0.2500000  -0.2469136), wk =   0.5000000

                       cryst. coord.
        k(    1) = (   0.2500000   0.2500000   0.2500000), wk =   0.5000000
        k(    2) = (  -0.2500000   0.2500000  -0.2500000), wk =   1.0000000
        k(    3) = (   0.2500000   0.2500000  -0.2500000), wk =   0.5000000

     Dense  grid:   918009 G-vectors     FFT dimensions: ( 125, 125, 125)

     Smooth grid:   190063 G-vectors     FFT dimensions: (  72,  72,  72)

     Dynamical RAM for                 wfc:      20.66 MB

     Dynamical RAM for     wfc (w. buffer):      82.63 MB

     Dynamical RAM for           str. fact:       3.50 MB

     Dynamical RAM for           local pot:       0.00 MB

     Dynamical RAM for          nlocal pot:      48.93 MB

     Dynamical RAM for                qrad:       9.62 MB

     Dynamical RAM for          rho,v,vnew:      10.97 MB

     Dynamical RAM for               rhoin:       3.66 MB

     Dynamical RAM for            rho*nmix:      28.02 MB

     Dynamical RAM for           G-vectors:       6.75 MB

     Dynamical RAM for          h,s,v(r/c):      85.67 MB

     Dynamical RAM for          <psi|beta>:       7.51 MB

     Dynamical RAM for                 psi:      61.97 MB

     Dynamical RAM for                hpsi:      61.97 MB

     Dynamical RAM for                spsi:      61.97 MB

     Dynamical RAM for      wfcinit/wfcrot:      70.74 MB

     Dynamical RAM for           addusdens:     435.99 MB

     Estimated static dynamical RAM per process >     208.87 MB

     Estimated max dynamical RAM per process >     644.87 MB

     Estimated total dynamical RAM >       5.04 GB

     Check: negative core charge=   -0.000003

     Initial potential from superposition of free atoms

     starting charge  761.93110, renormalised to  760.00000
     Starting wfcs are  668 randomized atomic wfcs
     Checking if some PAW data can be deallocated... 

     total cpu time spent up to now is      105.6 secs

     Self-consistent Calculation

     iteration #  1     ecut=    35.00 Ry     beta= 0.40
     Davidson diagonalization with overlap
     ethr =  1.00E-02,  avg # of iterations =  2.0

     total cpu time spent up to now is      280.8 secs

     total energy              =  -12458.00896928 Ry
     Harris-Foulkes estimate   =  -12478.95441823 Ry
     estimated scf accuracy    <      38.57156952 Ry

     iteration #  2     ecut=    35.00 Ry     beta= 0.40
     Davidson diagonalization with overlap
     ethr =  5.08E-03,  avg # of iterations =  4.0

     total cpu time spent up to now is      603.3 secs

     total energy              =  -12469.49632798 Ry
     Harris-Foulkes estimate   =  -12471.55197299 Ry
     estimated scf accuracy    <       5.17135401 Ry

     iteration #  3     ecut=    35.00 Ry     beta= 0.40
     Davidson diagonalization with overlap
     ethr =  6.80E-04,  avg # of iterations =  4.0

     total cpu time spent up to now is      881.7 secs

     total energy              =  -12470.40744246 Ry
     Harris-Foulkes estimate   =  -12470.47792042 Ry
     estimated scf accuracy    <       0.41257206 Ry

     iteration #  4     ecut=    35.00 Ry     beta= 0.40
     Davidson diagonalization with overlap
     ethr =  5.43E-05,  avg # of iterations = 10.7

     total cpu time spent up to now is     1350.4 secs

     total energy              =  -12470.48970232 Ry
     Harris-Foulkes estimate   =  -12470.55374169 Ry
     estimated scf accuracy    <       0.31574639 Ry

     iteration #  5     ecut=    35.00 Ry     beta= 0.40
     Davidson diagonalization with overlap
     ethr =  4.15E-05,  avg # of iterations =  6.3

     total cpu time spent up to now is     1564.0 secs

     total energy              =  -12470.49427106 Ry
     Harris-Foulkes estimate   =  -12470.50928675 Ry
     estimated scf accuracy    <       0.05562665 Ry

     iteration #  6     ecut=    35.00 Ry     beta= 0.40
     Davidson diagonalization with overlap
     ethr =  7.32E-06,  avg # of iterations = 10.3

     total cpu time spent up to now is     2020.9 secs

     total energy              =  -12470.50615811 Ry
     Harris-Foulkes estimate   =  -12470.50881375 Ry
     estimated scf accuracy    <       0.01080347 Ry

     iteration #  7     ecut=    35.00 Ry     beta= 0.40
     Davidson diagonalization with overlap
     ethr =  1.42E-06,  avg # of iterations =  2.0

     total cpu time spent up to now is     2195.0 secs

     total energy              =  -12470.50580746 Ry
     Harris-Foulkes estimate   =  -12470.50692006 Ry
     estimated scf accuracy    <       0.00297026 Ry

     iteration #  8     ecut=    35.00 Ry     beta= 0.40
     Davidson diagonalization with overlap
     ethr =  3.91E-07,  avg # of iterations =  8.0

     total cpu time spent up to now is     2584.3 secs

     total energy              =  -12470.50681214 Ry
     Harris-Foulkes estimate   =  -12470.50697817 Ry
     estimated scf accuracy    <       0.00124296 Ry

     iteration #  9     ecut=    35.00 Ry     beta= 0.40
     Davidson diagonalization with overlap
     ethr =  1.64E-07,  avg # of iterations =  1.0

     total cpu time spent up to now is     2749.1 secs

     total energy              =  -12470.50680822 Ry
     Harris-Foulkes estimate   =  -12470.50687378 Ry
     estimated scf accuracy    <       0.00039749 Ry

     iteration # 10     ecut=    35.00 Ry     beta= 0.40
     Davidson diagonalization with overlap
     ethr =  5.23E-08,  avg # of iterations =  3.0

     total cpu time spent up to now is     2982.3 secs

     total energy              =  -12470.50686884 Ry
     Harris-Foulkes estimate   =  -12470.50688310 Ry
     estimated scf accuracy    <       0.00007140 Ry

     iteration # 11     ecut=    35.00 Ry     beta= 0.40
     Davidson diagonalization with overlap
     ethr =  9.39E-09,  avg # of iterations =  3.0

     total cpu time spent up to now is     3196.7 secs

     total energy              =  -12470.50687483 Ry
     Harris-Foulkes estimate   =  -12470.50688265 Ry
     estimated scf accuracy    <       0.00003790 Ry

     iteration # 12     ecut=    35.00 Ry     beta= 0.40
     Davidson diagonalization with overlap
     ethr =  4.99E-09,  avg # of iterations =  3.0

     total cpu time spent up to now is     3436.5 secs

     total energy              =  -12470.50688259 Ry
     Harris-Foulkes estimate   =  -12470.50688435 Ry
     estimated scf accuracy    <       0.00001102 Ry

     iteration # 13     ecut=    35.00 Ry     beta= 0.40
     Davidson diagonalization with overlap
     ethr =  1.45E-09,  avg # of iterations =  2.7

     total cpu time spent up to now is     3620.5 secs

     total energy              =  -12470.50688341 Ry
     Harris-Foulkes estimate   =  -12470.50688374 Ry
     estimated scf accuracy    <       0.00000217 Ry

     iteration # 14     ecut=    35.00 Ry     beta= 0.40
     Davidson diagonalization with overlap
     ethr =  2.85E-10,  avg # of iterations =  4.0

     total cpu time spent up to now is     3924.6 secs

     total energy              =  -12470.50688412 Ry
     Harris-Foulkes estimate   =  -12470.50688413 Ry
     estimated scf accuracy    <       0.00000045 Ry

     iteration # 15     ecut=    35.00 Ry     beta= 0.40
     Davidson diagonalization with overlap
     ethr =  5.93E-11,  avg # of iterations =  3.0

     total cpu time spent up to now is     4151.6 secs

     total energy              =  -12470.50688422 Ry
     Harris-Foulkes estimate   =  -12470.50688423 Ry
     estimated scf accuracy    <       0.00000020 Ry

     iteration # 16     ecut=    35.00 Ry     beta= 0.40
     Davidson diagonalization with overlap
     ethr =  2.61E-11,  avg # of iterations =  3.0

     total cpu time spent up to now is     4360.9 secs

     total energy              =  -12470.50688425 Ry
     Harris-Foulkes estimate   =  -12470.50688426 Ry
     estimated scf accuracy    <       0.00000009 Ry

     iteration # 17     ecut=    35.00 Ry     beta= 0.40
     Davidson diagonalization with overlap
     ethr =  1.25E-11,  avg # of iterations =  2.0

     total cpu time spent up to now is     4537.4 secs

     total energy              =  -12470.50688425 Ry
     Harris-Foulkes estimate   =  -12470.50688426 Ry
     estimated scf accuracy    <       0.00000002 Ry

     iteration # 18     ecut=    35.00 Ry     beta= 0.40
     Davidson diagonalization with overlap
     ethr =  3.19E-12,  avg # of iterations =  3.0

     total cpu time spent up to now is     4784.8 secs

     End of self-consistent calculation

          k = 0.2500 0.2500 0.2469 ( 23750 PWs)   bands (ev):

   -34.9328 -34.9214 -34.8771 -34.8730 -34.8596 -34.8541 -34.8538 -34.8505
   -34.8469 -34.8419 -34.8190 -34.8095 -34.7759 -34.7712 -34.7650 -34.7564
   -34.7529 -34.7472 -34.7386 -34.7379 -34.7352 -34.7338 -34.7317 -34.7296
   -34.7270 -34.7196 -34.7161 -34.7102 -34.6661 -34.6569 -34.6229 -34.6185
   -13.6297 -13.5968 -13.5850 -13.5731 -13.5535 -13.5443 -13.4976 -13.4934
   -13.4851 -13.4765 -13.4683 -13.4569 -13.4494 -13.4410 -13.4385 -13.4265
   -13.4251 -13.4143 -13.4110 -13.4019 -13.4008 -13.3947 -13.3880 -13.3856
   -13.3716 -13.3261 -13.3000 -13.2664 -13.2291 -13.2210 -13.2092 -13.1866
   -13.1717 -13.1646 -13.1600 -13.1544 -13.1370 -13.1201 -13.1073 -13.0962
   -13.0706 -13.0504 -13.0474 -13.0434 -13.0221 -13.0107 -13.0020 -13.0018
   -12.9888 -12.9573 -12.9568 -12.9445 -12.9383 -12.9340 -12.9173 -12.9163
   -12.9142 -12.9074 -12.9004 -12.8951 -12.8885 -12.8884 -12.8807 -12.8769
   -12.8746 -12.8631 -12.8622 -12.8613 -12.8443 -12.8418 -12.8325 -12.8325
   -12.8285 -12.8245 -12.8178 -12.8140 -12.8112 -12.8049 -12.7995 -12.7970
   -12.7913 -12.7817 -12.7754 -12.7736 -12.7678 -12.7590 -12.7584 -12.7534
   -12.7426 -12.7381 -12.7326 -12.7301 -12.7230 -12.7190 -12.7018 -12.6886
    -5.2949  -4.7844  -4.7545  -4.7356  -4.5780  -4.5103  -4.4965  -4.4856
    -4.4013  -4.3701  -4.3677  -4.1848  -4.1659  -4.1648  -4.1039  -4.0886
    -4.0881  -4.0585  -4.0456  -4.0149  -4.0140  -3.9917  -3.9825  -3.9699
    -3.9428  -3.9350  -3.9013  -3.8874  -3.8698  -3.8338  -3.8322  -3.7797
    -3.7734  -3.7419  -3.7057  -3.6569  -3.6245  -3.5731  -3.5600  -3.5489
    -3.5318  -3.5162  -3.4973  -3.4948  -3.4857  -3.4803  -3.4637  -3.4568
    -3.4444  -3.4353  -3.4248  -3.4161  -3.4035  -3.4027  -3.3791  -3.3764
    -3.3327  -3.2570  -3.2456  -3.2350  -3.2082  -3.2021  -3.1646   7.0723
     7.0947   7.1037   7.5030   7.5205   7.5711   7.5982   7.6378   7.6659
     7.7104   7.7165   7.8021   7.8354   7.8409   7.8677   7.9023   7.9161
     7.9256   7.9372   7.9481   7.9701   8.0087   8.0147   8.0209   8.0255
     8.0658   8.0713   8.0824   8.1090   8.1198   8.1320   8.1446   8.1783
     8.1885   8.1976   8.2439   8.2556   8.2657   8.2791   8.3355   8.4191
     8.4791   8.5299   8.5393   8.5462   8.5847   8.5850   8.6225   8.6384
     8.6662   8.6967   8.6992   8.7176   8.7180   8.7673   8.7709   8.7931
     8.8089   8.8336   8.8427   8.8828   8.9087   8.9496   9.0169   9.0302
     9.0939   9.1594   9.1677   9.1919   9.2191   9.2515   9.2622   9.3080
     9.3168   9.3764   9.3780   9.3956   9.4311   9.4334   9.4861   9.5295
     9.5431   9.5517   9.5651   9.6403   9.6969   9.6972   9.7473   9.7543
     9.7947   9.8083   9.8447   9.8822  10.0106  10.0367  10.0659  10.1030
    10.1277  10.1523  10.2782  10.3156  10.3378  10.3713  10.4241  10.4435
    10.4598  10.4905  10.5225  10.5410  10.5671  10.6228  10.6425  10.6489
    10.6780  10.6900  10.7241  10.7282  10.7513  10.7571  10.7869  10.8190
    10.8615  10.8740  10.9050  10.9117  10.9463  10.9705  11.0319  11.0384
    11.0632  11.0649  11.0808  11.0928  11.1163  11.1320  11.1502  11.2085
    11.2139  11.2311  11.2639  11.2658  11.3104  11.3498  11.3848  11.4098
    11.4234  11.4492  11.4882  11.4895  11.5155  11.5440  11.6035  11.6069
    11.6242  11.6358  11.6735  11.6843  11.7085  11.7312  11.8116  11.8129
    11.8294  11.8371  11.8453  11.8969  11.9072  11.9239  11.9317  11.9560
    11.9658  11.9741  11.9835  12.0266  12.0323  12.0482  12.0693  12.0883
    12.1076  12.1181  12.1384  12.1432  12.1601  12.1877  12.2097  12.2226
    12.2350  12.2594  12.2759  12.2761  16.7621  16.8202  16.9563  16.9640
    16.9790  17.0032  17.0911  17.1114  17.1420  17.1743  17.1848  17.2034
    17.2440  17.2503  17.2649  17.2814  17.3043  17.3075  17.3425  17.3761
    17.3875  17.4026  17.4181  17.4304  17.4347  17.4431  17.4661  17.4754
    17.5062  17.5089  17.5333  17.5357  17.5509  17.5816  17.5928  17.6173
    17.6362  17.6420  17.6523  17.6901  17.6904  17.7286  17.7576  17.7882
    17.7960  17.8126  17.8159  17.8587  17.8610  17.8748  17.8797  17.8990
    17.9206  17.9317  17.9374  17.9642  17.9661  17.9759  18.0177  18.0351
    18.0575  18.0644  18.0948  18.3500  18.3656  19.0925  19.1753  19.2704
    19.3648  19.3686  19.4260  19.4426  19.4436  19.4535  19.4898  19.5309

     occupation numbers 
     1.0000   1.0000   1.0000   1.0000   1.0000   1.0000   1.0000   1.0000
     1.0000   1.0000   1.0000   1.0000   1.0000   1.0000   1.0000   1.0000
     1.0000   1.0000   1.0000   1.0000   1.0000   1.0000   1.0000   1.0000
     1.0000   1.0000   1.0000   1.0000   1.0000   1.0000   1.0000   1.0000
     1.0000   1.0000   1.0000   1.0000   1.0000   1.0000   1.0000   1.0000
     1.0000   1.0000   1.0000   1.0000   1.0000   1.0000   1.0000   1.0000
     1.0000   1.0000   1.0000   1.0000   1.0000   1.0000   1.0000   1.0000
     1.0000   1.0000   1.0000   1.0000   1.0000   1.0000   1.0000   1.0000
     1.0000   1.0000   1.0000   1.0000   1.0000   1.0000   1.0000   1.0000
     1.0000   1.0000   1.0000   1.0000   1.0000   1.0000   1.0000   1.0000
     1.0000   1.0000   1.0000   1.0000   1.0000   1.0000   1.0000   1.0000
     1.0000   1.0000   1.0000   1.0000   1.0000   1.0000   1.0000   1.0000
     1.0000   1.0000   1.0000   1.0000   1.0000   1.0000   1.0000   1.0000
     1.0000   1.0000   1.0000   1.0000   1.0000   1.0000   1.0000   1.0000
     1.0000   1.0000   1.0000   1.0000   1.0000   1.0000   1.0000   1.0000
     1.0000   1.0000   1.0000   1.0000   1.0000   1.0000   1.0000   1.0000
     1.0000   1.0000   1.0000   1.0000   1.0000   1.0000   1.0000   1.0000
     1.0000   1.0000   1.0000   1.0000   1.0000   1.0000   1.0000   1.0000
     1.0000   1.0000   1.0000   1.0000   1.0000   1.0000   1.0000   1.0000
     1.0000   1.0000   1.0000   1.0000   1.0000   1.0000   1.0000   1.0000
     1.0000   1.0000   1.0000   1.0000   1.0000   1.0000   1.0000   1.0000
     1.0000   1.0000   1.0000   1.0000   1.0000   1.0000   1.0000   1.0000
     1.0000   1.0000   1.0000   1.0000   1.0000   1.0000   1.0000   1.0000
     1.0000   1.0000   1.0000   1.0000   1.0000   1.0000   1.0000   1.0000
     1.0000   1.0000   1.0000   1.0000   1.0000   1.0000   1.0000   1.0000
     1.0000   1.0000   1.0000   1.0000   1.0000   1.0000   1.0000   1.0000
     1.0000   1.0000   1.0000   1.0000   1.0000   1.0000   1.0000   1.0000
     1.0000   1.0000   1.0000   1.0000   1.0000   1.0000   1.0000   1.0000
     1.0000   1.0000   1.0000   1.0000   1.0000   1.0000   1.0000   1.0000
     1.0000   1.0000   1.0000   1.0000   1.0000   1.0000   1.0000   1.0000
     1.0000   1.0000   1.0000   1.0000   1.0000   1.0000   1.0000   1.0000
     1.0000   1.0000   1.0000   1.0000   1.0000   1.0000   1.0000   1.0000
     1.0000   1.0000   1.0000   1.0000   1.0000   1.0000   1.0000   1.0000
     1.0000   1.0000   1.0000   1.0000   1.0000   1.0000   1.0000   1.0000
     1.0000   1.0000   1.0000   1.0000   1.0000   1.0000   1.0000   1.0000
     1.0000   1.0000   1.0000   1.0000   1.0000   1.0000   1.0000   1.0000
     1.0000   1.0000   1.0000   1.0000   1.0000   1.0000   1.0000   1.0000
     1.0000   1.0000   1.0000   1.0000   1.0000   1.0000   1.0000   1.0000
     1.0000   1.0000   1.0000   1.0000   1.0000   1.0000   1.0000   1.0000
     1.0000   1.0000   1.0000   1.0000   1.0000   1.0000   1.0000   1.0000
     1.0000   1.0000   1.0000   1.0000   1.0000   1.0000   1.0000   1.0000
     1.0000   1.0000   1.0000   1.0000   1.0000   1.0000   1.0000   1.0000
     1.0000   1.0000   1.0000   1.0000   1.0000   1.0000   1.0001   1.0001
     1.0002   1.0002   1.0004   1.0005   1.0008   1.0011   1.0038   1.0039
     1.0049   1.0054   1.0060   1.0110   1.0123   1.0146   1.0157   1.0195
     1.0211   1.0225   1.0241   1.0311   1.0319   1.0337   1.0353   1.0353
     1.0336   1.0317   1.0259   1.0241   1.0160   0.9966   0.9748   0.9593
     0.9423   0.9028   0.8715   0.8711  -0.0000  -0.0000  -0.0000  -0.0000
    -0.0000  -0.0000  -0.0000  -0.0000  -0.0000  -0.0000  -0.0000  -0.0000
    -0.0000  -0.0000  -0.0000  -0.0000  -0.0000  -0.0000  -0.0000  -0.0000
    -0.0000  -0.0000  -0.0000  -0.0000  -0.0000  -0.0000  -0.0000  -0.0000
    -0.0000  -0.0000  -0.0000  -0.0000  -0.0000  -0.0000  -0.0000  -0.0000
    -0.0000  -0.0000  -0.0000  -0.0000  -0.0000  -0.0000  -0.0000  -0.0000
    -0.0000  -0.0000  -0.0000  -0.0000  -0.0000  -0.0000  -0.0000  -0.0000
    -0.0000  -0.0000  -0.0000  -0.0000  -0.0000  -0.0000  -0.0000  -0.0000
    -0.0000  -0.0000  -0.0000  -0.0000  -0.0000  -0.0000  -0.0000  -0.0000
    -0.0000  -0.0000  -0.0000  -0.0000  -0.0000  -0.0000  -0.0000  -0.0000

          k =-0.2500 0.2500-0.2469 ( 23750 PWs)   bands (ev):

   -34.9328 -34.9214 -34.8789 -34.8685 -34.8628 -34.8574 -34.8523 -34.8479
   -34.8454 -34.8436 -34.8190 -34.8095 -34.7751 -34.7723 -34.7625 -34.7613
   -34.7499 -34.7449 -34.7416 -34.7381 -34.7356 -34.7327 -34.7317 -34.7302
   -34.7266 -34.7195 -34.7161 -34.7102 -34.6661 -34.6569 -34.6229 -34.6185
   -13.6313 -13.5960 -13.5864 -13.5716 -13.5504 -13.5386 -13.5096 -13.4922
   -13.4856 -13.4798 -13.4748 -13.4634 -13.4558 -13.4465 -13.4372 -13.4322
   -13.4300 -13.4264 -13.4089 -13.3992 -13.3951 -13.3912 -13.3699 -13.3694
   -13.3606 -13.3070 -13.2786 -13.2718 -13.2307 -13.2167 -13.2034 -13.1914
   -13.1848 -13.1806 -13.1713 -13.1658 -13.1406 -13.1190 -13.1081 -13.0978
   -13.0609 -13.0600 -13.0506 -13.0436 -13.0257 -13.0154 -13.0123 -12.9895
   -12.9732 -12.9686 -12.9526 -12.9452 -12.9408 -12.9241 -12.9191 -12.9131
   -12.9127 -12.9017 -12.9016 -12.8923 -12.8913 -12.8884 -12.8816 -12.8801
   -12.8727 -12.8645 -12.8629 -12.8498 -12.8458 -12.8431 -12.8347 -12.8331
   -12.8296 -12.8231 -12.8216 -12.8130 -12.8118 -12.8087 -12.7971 -12.7944
   -12.7943 -12.7800 -12.7794 -12.7702 -12.7656 -12.7600 -12.7572 -12.7557
   -12.7458 -12.7409 -12.7373 -12.7279 -12.7271 -12.7127 -12.6997 -12.6839
    -5.2971  -4.7866  -4.7499  -4.7331  -4.5861  -4.5094  -4.5028  -4.4719
    -4.4082  -4.3818  -4.3458  -4.1828  -4.1657  -4.1546  -4.1357  -4.1083
    -4.0499  -4.0498  -4.0387  -4.0254  -4.0201  -4.0114  -3.9774  -3.9753
    -3.9530  -3.9221  -3.8949  -3.8927  -3.8558  -3.8379  -3.8300  -3.7834
    -3.7730  -3.7276  -3.7011  -3.6559  -3.6288  -3.5757  -3.5567  -3.5435
    -3.5257  -3.5180  -3.5086  -3.4960  -3.4882  -3.4786  -3.4715  -3.4664
    -3.4525  -3.4398  -3.4153  -3.4149  -3.4105  -3.3978  -3.3759  -3.3729
    -3.3319  -3.2539  -3.2468  -3.2407  -3.2049  -3.2002  -3.1623   7.0783
     7.0918   7.1113   7.5134   7.5183   7.5862   7.5950   7.6515   7.6603
     7.6946   7.7133   7.7826   7.8338   7.8356   7.8624   7.8869   7.9027
     7.9222   7.9578   7.9586   7.9718   7.9901   8.0030   8.0400   8.0462
     8.0538   8.0607   8.0939   8.1031   8.1227   8.1432   8.1509   8.1683
     8.1975   8.2137   8.2194   8.2327   8.2979   8.3003   8.3527   8.3749
     8.4696   8.5025   8.5338   8.5526   8.5918   8.5924   8.6376   8.6448
     8.6603   8.6753   8.6850   8.7254   8.7368   8.7567   8.7805   8.8005
     8.8052   8.8592   8.8718   8.8910   8.9073   8.9390   8.9693   9.0460
     9.0684   9.1305   9.1608   9.1927   9.2131   9.2443   9.2485   9.2969
     9.3354   9.3577   9.3910   9.4048   9.4377   9.4518   9.4784   9.5184
     9.5391   9.5718   9.5919   9.6787   9.6831   9.6955   9.7426   9.7701
     9.8059   9.8176   9.8432   9.8752  10.0136  10.0231  10.0713  10.1115
    10.1452  10.1716  10.2858  10.3153  10.3416  10.3511  10.4050  10.4760
    10.4837  10.5039  10.5338  10.5447  10.5549  10.5788  10.6437  10.6492
    10.6760  10.7136  10.7179  10.7260  10.7311  10.7565  10.7684  10.8228
    10.8553  10.8709  10.8929  10.9257  10.9435  10.9462  11.0238  11.0576
    11.0666  11.0688  11.0775  11.1002  11.1059  11.1249  11.1290  11.1807
    11.1987  11.2011  11.2517  11.3063  11.3075  11.3501  11.3614  11.4055
    11.4318  11.4474  11.4932  11.5137  11.5255  11.5293  11.5677  11.6203
    11.6416  11.6634  11.6935  11.7113  11.7487  11.7528  11.7774  11.7892
    11.8223  11.8336  11.8677  11.8773  11.9045  11.9158  11.9361  11.9477
    11.9620  11.9879  11.9946  12.0036  12.0275  12.0619  12.0712  12.0780
    12.1099  12.1157  12.1424  12.1608  12.1703  12.1912  12.2028  12.2221
    12.2248  12.2592  12.2608  12.2760  16.7712  16.7981  16.8881  16.9544
    17.0332  17.0465  17.0953  17.1290  17.1339  17.1792  17.1914  17.2082
    17.2203  17.2329  17.2505  17.2683  17.3281  17.3364  17.3466  17.3568
    17.3849  17.3970  17.4175  17.4304  17.4355  17.4498  17.4515  17.4851
    17.4867  17.5065  17.5079  17.5450  17.5745  17.5866  17.5891  17.6232
    17.6419  17.6607  17.6625  17.6890  17.7138  17.7194  17.7664  17.7746
    17.8019  17.8230  17.8295  17.8353  17.8659  17.8705  17.8805  17.8859
    17.9147  17.9172  17.9481  17.9495  17.9534  17.9890  18.0110  18.0205
    18.0536  18.0712  18.1343  18.3203  18.3663  19.1448  19.2123  19.2797
    19.3642  19.3755  19.3885  19.4239  19.4446  19.4493  19.4604  19.5086

     occupation numbers 
     1.0000   1.0000   1.0000   1.0000   1.0000   1.0000   1.0000   1.0000
     1.0000   1.0000   1.0000   1.0000   1.0000   1.0000   1.0000   1.0000
     1.0000   1.0000   1.0000   1.0000   1.0000   1.0000   1.0000   1.0000
     1.0000   1.0000   1.0000   1.0000   1.0000   1.0000   1.0000   1.0000
     1.0000   1.0000   1.0000   1.0000   1.0000   1.0000   1.0000   1.0000
     1.0000   1.0000   1.0000   1.0000   1.0000   1.0000   1.0000   1.0000
     1.0000   1.0000   1.0000   1.0000   1.0000   1.0000   1.0000   1.0000
     1.0000   1.0000   1.0000   1.0000   1.0000   1.0000   1.0000   1.0000
     1.0000   1.0000   1.0000   1.0000   1.0000   1.0000   1.0000   1.0000
     1.0000   1.0000   1.0000   1.0000   1.0000   1.0000   1.0000   1.0000
     1.0000   1.0000   1.0000   1.0000   1.0000   1.0000   1.0000   1.0000
     1.0000   1.0000   1.0000   1.0000   1.0000   1.0000   1.0000   1.0000
     1.0000   1.0000   1.0000   1.0000   1.0000   1.0000   1.0000   1.0000
     1.0000   1.0000   1.0000   1.0000   1.0000   1.0000   1.0000   1.0000
     1.0000   1.0000   1.0000   1.0000   1.0000   1.0000   1.0000   1.0000
     1.0000   1.0000   1.0000   1.0000   1.0000   1.0000   1.0000   1.0000
     1.0000   1.0000   1.0000   1.0000   1.0000   1.0000   1.0000   1.0000
     1.0000   1.0000   1.0000   1.0000   1.0000   1.0000   1.0000   1.0000
     1.0000   1.0000   1.0000   1.0000   1.0000   1.0000   1.0000   1.0000
     1.0000   1.0000   1.0000   1.0000   1.0000   1.0000   1.0000   1.0000
     1.0000   1.0000   1.0000   1.0000   1.0000   1.0000   1.0000   1.0000
     1.0000   1.0000   1.0000   1.0000   1.0000   1.0000   1.0000   1.0000
     1.0000   1.0000   1.0000   1.0000   1.0000   1.0000   1.0000   1.0000
     1.0000   1.0000   1.0000   1.0000   1.0000   1.0000   1.0000   1.0000
     1.0000   1.0000   1.0000   1.0000   1.0000   1.0000   1.0000   1.0000
     1.0000   1.0000   1.0000   1.0000   1.0000   1.0000   1.0000   1.0000
     1.0000   1.0000   1.0000   1.0000   1.0000   1.0000   1.0000   1.0000
     1.0000   1.0000   1.0000   1.0000   1.0000   1.0000   1.0000   1.0000
     1.0000   1.0000   1.0000   1.0000   1.0000   1.0000   1.0000   1.0000
     1.0000   1.0000   1.0000   1.0000   1.0000   1.0000   1.0000   1.0000
     1.0000   1.0000   1.0000   1.0000   1.0000   1.0000   1.0000   1.0000
     1.0000   1.0000   1.0000   1.0000   1.0000   1.0000   1.0000   1.0000
     1.0000   1.0000   1.0000   1.0000   1.0000   1.0000   1.0000   1.0000
     1.0000   1.0000   1.0000   1.0000   1.0000   1.0000   1.0000   1.0000
     1.0000   1.0000   1.0000   1.0000   1.0000   1.0000   1.0000   1.0000
     1.0000   1.0000   1.0000   1.0000   1.0000   1.0000   1.0000   1.0000
     1.0000   1.0000   1.0000   1.0000   1.0000   1.0000   1.0000   1.0000
     1.0000   1.0000   1.0000   1.0000   1.0000   1.0000   1.0000   1.0000
     1.0000   1.0000   1.0000   1.0000   1.0000   1.0000   1.0000   1.0000
     1.0000   1.0000   1.0000   1.0000   1.0000   1.0000   1.0000   1.0000
     1.0000   1.0000   1.0000   1.0000   1.0000   1.0000   1.0000   1.0000
     1.0000   1.0000   1.0000   1.0000   1.0000   1.0000   1.0000   1.0000
     1.0000   1.0000   1.0000   1.0000   1.0000   1.0000   1.0001   1.0002
     1.0002   1.0003   1.0006   1.0008   1.0015   1.0016   1.0023   1.0028
     1.0044   1.0052   1.0079   1.0089   1.0120   1.0135   1.0164   1.0182
     1.0205   1.0249   1.0260   1.0275   1.0312   1.0349   1.0353   1.0355
     1.0332   1.0322   1.0244   1.0156   1.0098   0.9935   0.9823   0.9599
     0.9564   0.9032   0.9002   0.8713  -0.0000  -0.0000  -0.0000  -0.0000
    -0.0000  -0.0000  -0.0000  -0.0000  -0.0000  -0.0000  -0.0000  -0.0000
    -0.0000  -0.0000  -0.0000  -0.0000  -0.0000  -0.0000  -0.0000  -0.0000
    -0.0000  -0.0000  -0.0000  -0.0000  -0.0000  -0.0000  -0.0000  -0.0000
    -0.0000  -0.0000  -0.0000  -0.0000  -0.0000  -0.0000  -0.0000  -0.0000
    -0.0000  -0.0000  -0.0000  -0.0000  -0.0000  -0.0000  -0.0000  -0.0000
    -0.0000  -0.0000  -0.0000  -0.0000  -0.0000  -0.0000  -0.0000  -0.0000
    -0.0000  -0.0000  -0.0000  -0.0000  -0.0000  -0.0000  -0.0000  -0.0000
    -0.0000  -0.0000  -0.0000  -0.0000  -0.0000  -0.0000  -0.0000  -0.0000
    -0.0000  -0.0000  -0.0000  -0.0000  -0.0000  -0.0000  -0.0000  -0.0000

          k = 0.2500 0.2500-0.2469 ( 23750 PWs)   bands (ev):

   -34.9328 -34.9214 -34.8771 -34.8730 -34.8596 -34.8541 -34.8538 -34.8505
   -34.8469 -34.8419 -34.8190 -34.8095 -34.7759 -34.7712 -34.7650 -34.7564
   -34.7529 -34.7472 -34.7386 -34.7379 -34.7352 -34.7338 -34.7317 -34.7296
   -34.7270 -34.7196 -34.7161 -34.7102 -34.6661 -34.6569 -34.6229 -34.6185
   -13.6297 -13.5968 -13.5850 -13.5731 -13.5535 -13.5443 -13.4976 -13.4934
   -13.4851 -13.4765 -13.4683 -13.4569 -13.4494 -13.4410 -13.4385 -13.4265
   -13.4251 -13.4143 -13.4110 -13.4019 -13.4008 -13.3947 -13.3880 -13.3856
   -13.3716 -13.3261 -13.3000 -13.2664 -13.2291 -13.2210 -13.2092 -13.1866
   -13.1717 -13.1646 -13.1600 -13.1544 -13.1370 -13.1201 -13.1072 -13.0962
   -13.0706 -13.0504 -13.0474 -13.0434 -13.0221 -13.0107 -13.0020 -13.0018
   -12.9888 -12.9573 -12.9568 -12.9445 -12.9383 -12.9340 -12.9173 -12.9163
   -12.9142 -12.9074 -12.9004 -12.8951 -12.8885 -12.8884 -12.8807 -12.8769
   -12.8746 -12.8631 -12.8622 -12.8613 -12.8443 -12.8418 -12.8325 -12.8325
   -12.8285 -12.8245 -12.8178 -12.8140 -12.8112 -12.8049 -12.7995 -12.7970
   -12.7913 -12.7817 -12.7754 -12.7735 -12.7678 -12.7590 -12.7584 -12.7534
   -12.7426 -12.7381 -12.7326 -12.7301 -12.7230 -12.7190 -12.7018 -12.6886
    -5.2949  -4.7844  -4.7545  -4.7356  -4.5780  -4.5103  -4.4965  -4.4856
    -4.4013  -4.3701  -4.3677  -4.1848  -4.1660  -4.1648  -4.1039  -4.0886
    -4.0881  -4.0585  -4.0456  -4.0149  -4.0140  -3.9917  -3.9825  -3.9699
    -3.9428  -3.9350  -3.9013  -3.8874  -3.8698  -3.8338  -3.8322  -3.7797
    -3.7734  -3.7419  -3.7057  -3.6569  -3.6245  -3.5731  -3.5600  -3.5489
    -3.5318  -3.5162  -3.4973  -3.4948  -3.4857  -3.4803  -3.4637  -3.4569
    -3.4444  -3.4353  -3.4248  -3.4161  -3.4035  -3.4027  -3.3791  -3.3764
    -3.3327  -3.2570  -3.2456  -3.2350  -3.2082  -3.2021  -3.1646   7.0723
     7.0947   7.1037   7.5030   7.5205   7.5711   7.5982   7.6378   7.6659
     7.7104   7.7165   7.8020   7.8354   7.8409   7.8677   7.9023   7.9162
     7.9256   7.9372   7.9481   7.9701   8.0087   8.0147   8.0209   8.0255
     8.0658   8.0713   8.0824   8.1090   8.1197   8.1320   8.1446   8.1783
     8.1885   8.1976   8.2439   8.2556   8.2657   8.2791   8.3355   8.4191
     8.4791   8.5299   8.5393   8.5462   8.5847   8.5850   8.6225   8.6384
     8.6662   8.6967   8.6992   8.7176   8.7180   8.7673   8.7709   8.7931
     8.8089   8.8336   8.8427   8.8828   8.9087   8.9496   9.0169   9.0302
     9.0940   9.1594   9.1677   9.1920   9.2190   9.2515   9.2622   9.3080
     9.3168   9.3765   9.3780   9.3956   9.4311   9.4334   9.4862   9.5295
     9.5431   9.5517   9.5650   9.6403   9.6968   9.6972   9.7473   9.7543
     9.7947   9.8083   9.8448   9.8822  10.0106  10.0368  10.0659  10.1030
    10.1277  10.1523  10.2782  10.3156  10.3378  10.3713  10.4240  10.4434
    10.4598  10.4905  10.5225  10.5410  10.5671  10.6228  10.6425  10.6490
    10.6780  10.6900  10.7241  10.7282  10.7513  10.7571  10.7869  10.8190
    10.8615  10.8740  10.9050  10.9117  10.9463  10.9705  11.0319  11.0384
    11.0632  11.0649  11.0808  11.0928  11.1163  11.1320  11.1502  11.2086
    11.2139  11.2311  11.2639  11.2658  11.3104  11.3498  11.3848  11.4098
    11.4234  11.4492  11.4882  11.4895  11.5155  11.5440  11.6035  11.6069
    11.6242  11.6359  11.6735  11.6842  11.7086  11.7313  11.8116  11.8129
    11.8294  11.8371  11.8453  11.8969  11.9072  11.9239  11.9317  11.9560
    11.9658  11.9740  11.9835  12.0266  12.0323  12.0482  12.0693  12.0883
    12.1076  12.1181  12.1384  12.1433  12.1601  12.1877  12.2097  12.2226
    12.2350  12.2594  12.2759  12.2761  16.7620  16.8202  16.9563  16.9640
    16.9791  17.0032  17.0911  17.1113  17.1421  17.1743  17.1848  17.2033
    17.2440  17.2503  17.2649  17.2814  17.3043  17.3075  17.3426  17.3761
    17.3875  17.4026  17.4181  17.4304  17.4347  17.4430  17.4662  17.4754
    17.5062  17.5089  17.5333  17.5357  17.5509  17.5816  17.5928  17.6173
    17.6361  17.6420  17.6524  17.6901  17.6904  17.7286  17.7576  17.7882
    17.7960  17.8126  17.8159  17.8587  17.8610  17.8748  17.8797  17.8991
    17.9206  17.9317  17.9374  17.9642  17.9661  17.9759  18.0177  18.0351
    18.0575  18.0644  18.0948  18.3500  18.3656  19.0925  19.1753  19.2704
    19.3648  19.3686  19.4260  19.4425  19.4436  19.4535  19.4899  19.5309

     occupation numbers 
     1.0000   1.0000   1.0000   1.0000   1.0000   1.0000   1.0000   1.0000
     1.0000   1.0000   1.0000   1.0000   1.0000   1.0000   1.0000   1.0000
     1.0000   1.0000   1.0000   1.0000   1.0000   1.0000   1.0000   1.0000
     1.0000   1.0000   1.0000   1.0000   1.0000   1.0000   1.0000   1.0000
     1.0000   1.0000   1.0000   1.0000   1.0000   1.0000   1.0000   1.0000
     1.0000   1.0000   1.0000   1.0000   1.0000   1.0000   1.0000   1.0000
     1.0000   1.0000   1.0000   1.0000   1.0000   1.0000   1.0000   1.0000
     1.0000   1.0000   1.0000   1.0000   1.0000   1.0000   1.0000   1.0000
     1.0000   1.0000   1.0000   1.0000   1.0000   1.0000   1.0000   1.0000
     1.0000   1.0000   1.0000   1.0000   1.0000   1.0000   1.0000   1.0000
     1.0000   1.0000   1.0000   1.0000   1.0000   1.0000   1.0000   1.0000
     1.0000   1.0000   1.0000   1.0000   1.0000   1.0000   1.0000   1.0000
     1.0000   1.0000   1.0000   1.0000   1.0000   1.0000   1.0000   1.0000
     1.0000   1.0000   1.0000   1.0000   1.0000   1.0000   1.0000   1.0000
     1.0000   1.0000   1.0000   1.0000   1.0000   1.0000   1.0000   1.0000
     1.0000   1.0000   1.0000   1.0000   1.0000   1.0000   1.0000   1.0000
     1.0000   1.0000   1.0000   1.0000   1.0000   1.0000   1.0000   1.0000
     1.0000   1.0000   1.0000   1.0000   1.0000   1.0000   1.0000   1.0000
     1.0000   1.0000   1.0000   1.0000   1.0000   1.0000   1.0000   1.0000
     1.0000   1.0000   1.0000   1.0000   1.0000   1.0000   1.0000   1.0000
     1.0000   1.0000   1.0000   1.0000   1.0000   1.0000   1.0000   1.0000
     1.0000   1.0000   1.0000   1.0000   1.0000   1.0000   1.0000   1.0000
     1.0000   1.0000   1.0000   1.0000   1.0000   1.0000   1.0000   1.0000
     1.0000   1.0000   1.0000   1.0000   1.0000   1.0000   1.0000   1.0000
     1.0000   1.0000   1.0000   1.0000   1.0000   1.0000   1.0000   1.0000
     1.0000   1.0000   1.0000   1.0000   1.0000   1.0000   1.0000   1.0000
     1.0000   1.0000   1.0000   1.0000   1.0000   1.0000   1.0000   1.0000
     1.0000   1.0000   1.0000   1.0000   1.0000   1.0000   1.0000   1.0000
     1.0000   1.0000   1.0000   1.0000   1.0000   1.0000   1.0000   1.0000
     1.0000   1.0000   1.0000   1.0000   1.0000   1.0000   1.0000   1.0000
     1.0000   1.0000   1.0000   1.0000   1.0000   1.0000   1.0000   1.0000
     1.0000   1.0000   1.0000   1.0000   1.0000   1.0000   1.0000   1.0000
     1.0000   1.0000   1.0000   1.0000   1.0000   1.0000   1.0000   1.0000
     1.0000   1.0000   1.0000   1.0000   1.0000   1.0000   1.0000   1.0000
     1.0000   1.0000   1.0000   1.0000   1.0000   1.0000   1.0000   1.0000
     1.0000   1.0000   1.0000   1.0000   1.0000   1.0000   1.0000   1.0000
     1.0000   1.0000   1.0000   1.0000   1.0000   1.0000   1.0000   1.0000
     1.0000   1.0000   1.0000   1.0000   1.0000   1.0000   1.0000   1.0000
     1.0000   1.0000   1.0000   1.0000   1.0000   1.0000   1.0000   1.0000
     1.0000   1.0000   1.0000   1.0000   1.0000   1.0000   1.0000   1.0000
     1.0000   1.0000   1.0000   1.0000   1.0000   1.0000   1.0000   1.0000
     1.0000   1.0000   1.0000   1.0000   1.0000   1.0000   1.0000   1.0000
     1.0000   1.0000   1.0000   1.0000   1.0000   1.0000   1.0001   1.0001
     1.0002   1.0002   1.0004   1.0005   1.0008   1.0011   1.0038   1.0039
     1.0049   1.0054   1.0060   1.0110   1.0123   1.0146   1.0157   1.0195
     1.0211   1.0225   1.0241   1.0311   1.0319   1.0337   1.0353   1.0353
     1.0336   1.0317   1.0259   1.0241   1.0160   0.9966   0.9748   0.9593
     0.9423   0.9028   0.8715   0.8711  -0.0000  -0.0000  -0.0000  -0.0000
    -0.0000  -0.0000  -0.0000  -0.0000  -0.0000  -0.0000  -0.0000  -0.0000
    -0.0000  -0.0000  -0.0000  -0.0000  -0.0000  -0.0000  -0.0000  -0.0000
    -0.0000  -0.0000  -0.0000  -0.0000  -0.0000  -0.0000  -0.0000  -0.0000
    -0.0000  -0.0000  -0.0000  -0.0000  -0.0000  -0.0000  -0.0000  -0.0000
    -0.0000  -0.0000  -0.0000  -0.0000  -0.0000  -0.0000  -0.0000  -0.0000
    -0.0000  -0.0000  -0.0000  -0.0000  -0.0000  -0.0000  -0.0000  -0.0000
    -0.0000  -0.0000  -0.0000  -0.0000  -0.0000  -0.0000  -0.0000  -0.0000
    -0.0000  -0.0000  -0.0000  -0.0000  -0.0000  -0.0000  -0.0000  -0.0000
    -0.0000  -0.0000  -0.0000  -0.0000  -0.0000  -0.0000  -0.0000  -0.0000

     the Fermi energy is    12.4126 ev

!    total energy              =  -12470.50688425 Ry
     Harris-Foulkes estimate   =  -12470.50688426 Ry
     estimated scf accuracy    <          3.7E-09 Ry

     total all-electron energy =   -239820.308103 Ry

     The total energy is the sum of the following terms:

     one-electron contribution =    -630.46439409 Ry
     hartree contribution      =     866.31587026 Ry
     xc contribution           =   -1054.35452039 Ry
     ewald contribution        =   -4328.08423805 Ry
     one-center paw contrib.   =   -7323.95148738 Ry
      -> PAW hartree energy AE =     431.28151952 Ry
      -> PAW hartree energy PS =    -429.64406504 Ry
      -> PAW xc energy AE      =   -1041.82441215 Ry
      -> PAW xc energy PS      =     123.50103259 Ry
      -> total E_H with PAW    =     867.95332474 Ry
      -> total E_XC with PAW   =   -1972.67789995 Ry
     smearing contrib. (-TS)   =       0.03188541 Ry

     convergence has been achieved in  18 iterations

     Writing output data file ZrO_.save/

     init_run     :    102.97s CPU    103.49s WALL (       1 calls)
     electrons    :   4661.99s CPU   4679.38s WALL (       1 calls)

     Called by init_run:
     wfcinit      :     92.20s CPU     92.49s WALL (       1 calls)
     wfcinit:atom :      0.04s CPU      0.06s WALL (       3 calls)
     wfcinit:wfcr :     91.56s CPU     91.82s WALL (       3 calls)
     potinit      :      3.06s CPU      3.09s WALL (       1 calls)
     hinit0       :      4.34s CPU      4.35s WALL (       1 calls)

     Called by electrons:
     c_bands      :   4273.59s CPU   4284.44s WALL (      18 calls)
     sum_band     :    304.08s CPU    307.87s WALL (      18 calls)
     v_of_rho     :      6.04s CPU      6.17s WALL (      19 calls)
     v_h          :      0.48s CPU      0.50s WALL (      19 calls)
     v_xc         :      5.56s CPU      5.67s WALL (      19 calls)
     newd         :     58.18s CPU     60.72s WALL (      19 calls)
     PAW_pot      :     23.14s CPU     23.16s WALL (      19 calls)
     mix_rho      :      1.02s CPU      1.07s WALL (      18 calls)

     Called by c_bands:
     init_us_2    :      2.98s CPU      3.00s WALL (     111 calls)
     cegterg      :   4265.04s CPU   4275.77s WALL (      54 calls)

     Called by sum_band:
     sum_band:bec :      0.78s CPU      0.78s WALL (      54 calls)
     addusdens    :     60.06s CPU     62.77s WALL (      18 calls)

     Called by *egterg:
     h_psi        :   1228.67s CPU   1234.04s WALL (     282 calls)
     s_psi        :    567.64s CPU    568.44s WALL (     282 calls)
     g_psi        :      0.81s CPU      0.81s WALL (     225 calls)
     cdiaghg      :   1168.65s CPU   1169.87s WALL (     279 calls)
     cegterg:over :    571.63s CPU    572.73s WALL (     225 calls)
     cegterg:upda :    368.26s CPU    369.03s WALL (     225 calls)
     cegterg:last :    230.94s CPU    231.16s WALL (      54 calls)

     Called by h_psi:
     h_psi:pot    :   1227.99s CPU   1232.64s WALL (     282 calls)
     h_psi:calbec :    557.66s CPU    558.40s WALL (     282 calls)
     vloc_psi     :    102.66s CPU    105.90s WALL (     282 calls)
     add_vuspsi   :    567.67s CPU    568.33s WALL (     282 calls)

     General routines
     calbec       :    777.03s CPU    778.08s WALL (     336 calls)
     fft          :      4.84s CPU      5.02s WALL (     245 calls)
     ffts         :      0.07s CPU      0.07s WALL (      37 calls)
     fftw         :    113.36s CPU    116.97s WALL (  149770 calls)
     interpolate  :      0.37s CPU      0.39s WALL (      19 calls)

     Parallel routines
     fft_scatt_xy :     12.10s CPU     12.47s WALL (  150052 calls)
     fft_scatt_yz :     17.94s CPU     18.86s WALL (  150052 calls)

     PAW routines
     PAW_pot      :     23.14s CPU     23.16s WALL (      19 calls)
     PAW_symme    :      0.01s CPU      0.01s WALL (      37 calls)

     PWSCF        :      1h19m CPU      1h19m WALL


   This run was terminated on:  17:57:35  24Oct2019            

=------------------------------------------------------------------------------=
   JOB DONE.
=------------------------------------------------------------------------------=
Note: The following floating-point exceptions are signalling: IEEE_DENORMAL
Note: The following floating-point exceptions are signalling: IEEE_DENORMAL
Note: The following floating-point exceptions are signalling: IEEE_DENORMAL
Note: The following floating-point exceptions are signalling: IEEE_DENORMAL
Note: The following floating-point exceptions are signalling: IEEE_DENORMAL
Note: The following floating-point exceptions are signalling: IEEE_DENORMAL
Note: The following floating-point exceptions are signalling: IEEE_DENORMAL
Note: The following floating-point exceptions are signalling: IEEE_DENORMAL
